# Time   VoD
0.075  6.789
0.125  8.643
0.175  8.481
0.225  7.932
0.275  8.267
0.325  8.291
0.375  8.132
0.425  8.103
0.475  8.065
0.525  8.031
0.575  8.023
0.625  8.017
0.675  8.010
0.725  8.008
0.775  8.015
0.825  9.175
0.875  8.463
0.925  8.197
0.975  8.072
1.025  8.036
1.075  8.023
1.125  8.012
1.175  8.009
1.225  8.256
1.275  9.096
1.325  8.395
1.375  8.150
1.425  8.049
1.475  8.028
1.525  8.014
1.575  8.011
1.625  8.277
1.675  9.136
1.725  8.381
1.775  8.108
1.825  8.043
1.875  8.028
1.925  8.015
1.975  8.011
2.025  8.507
2.075  9.036
2.125  8.269
2.175  8.094
2.225  8.043
2.275  8.026
2.325  8.015
2.375  8.012
2.425  8.708
2.475  8.882
2.525  8.239
2.575  8.080
2.625  8.042
2.675  8.024
2.725  8.014
2.775  8.011
2.825  8.667
2.875  8.892
2.925  8.260
2.975  8.095
3.025  8.041
3.075  8.021
3.125  8.014
3.175  8.014
3.225  9.070
3.275  8.616
3.325  8.175
3.375  8.059
3.425  8.038
3.475  8.018
3.525  8.013
3.575  8.014
3.625  9.157
3.675  8.552
3.725  8.160
3.775  8.057
3.825  8.032
3.875  8.018
3.925  8.011
3.975  8.011
4.025  9.033
4.075  8.610
4.125  8.203
4.175  8.077
4.225  8.034
4.275  8.019
4.325  8.012
4.375  8.009
4.425  8.705
4.475  9.089
4.525  8.111
4.575  8.073
4.625  8.018
4.675  7.981
4.725  8.011
4.775  8.018
4.825  9.418
4.875  8.361
4.925  8.109
4.975  8.047
5.025  8.027
5.075  8.015
5.125  8.014
5.175  8.947
5.225  8.720
5.275  8.194
5.325  8.062
5.375  8.038
5.425  8.018
5.475  8.013
5.525  8.017
5.575  9.326
5.625  8.424
5.675  8.130
5.725  8.050
5.775  8.031
5.825  8.018
5.875  8.005
5.925  9.458
5.975  8.199
6.025  8.154
6.075  8.135
6.125  8.038
6.175  8.020
6.225  8.103
6.275  7.891
6.325  8.014
6.375  9.297
6.425  8.468
6.475  8.123
6.525  8.049
6.575  8.029
6.625  8.015
6.675  8.014
6.725  8.954
6.775  8.720
6.825  8.190
6.875  8.061
6.925  8.037
6.975  8.018
7.025  8.013
7.075  8.063
7.125  9.386
7.175  8.344
7.225  8.110
7.275  8.047
7.325  8.029
7.375  8.015
7.425  8.013
7.475  8.732
7.525  8.539
7.575  8.239
7.625  8.414
7.675  8.048
7.725  8.021
7.775  8.013
7.825  8.463
7.875  7.540
7.925  9.541
7.975  8.285
8.025  8.082
8.075  8.043
8.125  8.020
8.175  8.013
8.225  8.018
8.275  9.392
8.325  8.377
8.375  8.115
8.425  8.048
8.475  8.029
8.525  8.015
8.575  8.013
8.625  8.787
8.675  8.840
8.725  8.222
8.775  8.069
8.825  8.041
8.875  8.019
8.925  8.013
8.975  8.016
9.025  9.304
9.075  8.443
9.125  8.134
9.175  8.037
9.225  8.023
9.275  8.025
9.325  8.034
9.375  9.349
9.425  8.342
9.475  8.050
9.525  8.139
9.575  8.052
9.625  8.030
9.675  8.016
9.725  8.013
9.775  8.781
9.825  8.848
9.875  8.222
9.925  8.069
9.975  8.041
10.025  8.019
10.075  8.013
10.125  8.017
10.175  9.320
10.225  8.431
10.275  8.128
10.325  8.050
10.375  8.031
10.425  8.016
10.475  8.012
10.525  8.519
10.575  9.043
10.625  8.264
10.675  8.085
10.725  8.044
10.775  8.025
10.825  8.013
10.875  8.009
10.925  8.008
10.975  8.622
11.025  8.746
11.075  8.542
11.125  8.040
11.175  8.021
11.225  8.013
11.275  8.016
11.325  9.296
11.375  8.452
11.425  8.131
11.475  8.051
11.525  8.031
11.575  8.016
11.625  8.012
11.675  8.536
11.725  9.031
11.775  8.261
11.825  8.084
11.875  8.044
11.925  8.022
11.975  8.014
12.025  8.015
12.075  9.090
12.125  8.608
12.175  8.167
12.225  8.058
12.275  8.036
12.325  8.018
12.375  8.013
12.425  8.012
12.475  8.952
12.525  8.585
12.575  8.246
12.625  8.176
12.675  8.406
12.725  7.609
12.775  8.011
12.825  8.018
12.875  9.432
12.925  8.346
12.975  8.108
13.025  8.046
13.075  8.028
13.125  8.015
13.175  8.013
13.225  8.830
13.275  8.804
13.325  8.215
13.375  8.068
13.425  8.041
13.475  8.019
13.525  8.013
13.575  8.016
13.625  9.250
13.675  8.482
13.725  8.141
13.775  8.053
13.825  8.033
13.875  8.017
13.925  8.012
13.975  8.016
14.025  9.243
14.075  8.470
14.125  8.141
14.175  8.066
14.225  8.074
14.275  9.131
14.325  6.859
14.375  8.132
14.425  9.349
14.475  8.324
14.525  8.101
14.575  8.046
14.625  8.026
14.675  8.015
14.725  8.013
14.775  8.896
14.825  8.754
14.875  8.203
14.925  8.065
14.975  8.040
15.025  8.019
15.075  8.013
15.125  8.016
15.175  9.239
15.225  8.489
15.275  8.142
15.325  8.054
15.375  8.034
15.425  8.017
15.475  8.012
15.525  8.123
15.575  9.291
15.625  8.360
15.675  8.121
15.725  8.051
15.775  8.037
15.825  9.407
15.875  8.330
15.925  6.289
15.975  9.229
16.025  8.515
16.075  8.138
16.125  8.052
16.175  8.031
16.225  8.016
16.275  8.012
16.325  8.524
16.375  9.038
16.425  8.263
16.475  8.086
16.525  8.044
16.575  8.023
16.625  8.014
16.675  8.014
16.725  8.973
16.775  8.693
16.825  8.191
16.875  8.062
16.925  8.039
16.975  8.019
17.025  8.013
17.075  8.016
17.125  9.224
17.175  8.499
17.225  8.146
17.275  8.056
17.325  8.032
17.375  8.018
17.425  9.444
17.475  8.299
17.525  6.286
17.575  9.554
17.625  8.272
17.675  8.079
17.725  8.043
17.775  8.019
17.825  8.013
17.875  8.016
17.925  9.289
17.975  8.452
18.025  8.134
18.075  8.052
18.125  8.032
18.175  8.016
18.225  8.012
18.275  8.251
18.325  9.229
18.375  8.315
18.425  8.106
18.475  8.046
18.525  8.029
18.575  8.015
18.625  8.012
18.675  8.606
18.725  8.965
18.775  8.253
18.825  8.086
18.875  8.042
18.925  8.026
18.975  8.033
19.025  9.590
19.075  8.240
19.125  7.134
19.175  8.757
19.225  8.152
19.275  8.054
19.325  8.032
19.375  8.016
19.425  8.013
19.475  8.564
19.525  9.007
19.575  8.257
19.625  8.083
19.675  8.044
19.725  8.022
19.775  8.014
19.825  8.014
19.875  8.991
19.925  8.677
19.975  8.188
20.025  8.062
20.075  8.039
20.125  8.018
20.175  8.013
20.225  8.015
20.275  9.188
20.325  8.524
20.375  8.153
20.425  8.057
20.475  8.036
20.525  8.018
20.575  9.298
20.625  8.459
20.675  8.159
20.725  8.074
20.775  7.830
20.825  8.096
20.875  8.047
20.925  8.027
20.975  8.015
21.025  8.014
21.075  8.948
21.125  8.717
21.175  8.194
21.225  8.062
21.275  8.038
21.325  8.018
21.375  8.013
21.425  8.016
21.475  9.269
21.525  8.466
21.575  8.138
21.625  8.053
21.675  8.033
21.725  8.017
21.775  8.012
21.825  8.086
21.875  9.341
21.925  8.354
21.975  8.116
22.025  8.048
22.075  8.032
22.125  8.016
22.175  8.011
22.225  8.138
22.275  9.755
22.325  8.080
22.375  7.902
22.425  8.052
22.475  8.038
22.525  8.018
22.575  8.013
22.625  8.017
22.675  9.365
22.725  8.391
22.775  8.121
22.825  8.049
22.875  8.031
22.925  8.016
22.975  8.012
23.025  8.345
23.075  9.158
23.125  8.296
23.175  8.102
23.225  8.045
23.275  8.028
23.325  8.015
23.375  8.012
23.425  8.572
23.475  8.988
23.525  8.259
23.575  8.088
23.625  8.044
23.675  8.026
23.725  8.015
23.775  8.011
23.825  8.267
23.875  9.077
23.925  8.400
23.975  8.162
24.025  8.043
24.075  8.025
24.125  8.015
24.175  8.013
24.225  8.759
24.275  8.843
24.325  8.233
24.375  8.076
24.425  8.042
24.475  8.022
24.525  8.014
24.575  8.013
24.625  8.929
24.675  8.718
24.725  8.201
24.775  8.066
24.825  8.040
24.875  8.019
24.925  8.014
24.975  8.014
25.025  9.042
25.075  8.633
25.125  8.181
25.175  8.060
25.225  8.039
25.275  8.019
25.325  8.013
25.375  8.012
25.425  8.837
25.475  8.298
25.525  8.797
25.575  7.980
25.625  8.039
25.675  8.022
25.725  8.014
25.775  8.014
25.825  9.021
25.875  8.654
25.925  8.183
25.975  8.060
26.025  8.038
26.075  8.018
26.125  8.013
26.175  8.015
26.225  9.168
26.275  8.537
26.325  8.158
26.375  8.056
26.425  8.036
26.475  8.018
26.525  8.013
26.575  8.016
26.625  9.246
26.675  8.477
26.725  8.144
26.775  8.054
26.825  8.035
26.875  8.018
26.925  8.013
26.975  8.013
27.025  8.984
27.075  8.682
27.125  8.265
27.175  8.060
27.225  7.959
27.275  8.019
27.325  8.015
27.375  8.014
27.425  9.073
27.475  8.620
27.525  8.171
27.575  8.058
27.625  8.037
27.675  8.018
27.725  8.013
27.775  8.016
27.825  9.272
27.875  8.459
27.925  8.138
27.975  8.053
28.025  8.034
28.075  8.017
28.125  8.012
28.175  8.017
28.225  9.358
28.275  8.391
28.325  8.124
28.375  8.050
28.425  8.032
28.475  8.016
28.525  8.013
28.575  8.014
28.625  9.169
28.675  8.530
28.725  8.229
28.775  8.258
28.825  7.768
28.875  8.015
28.925  8.013
28.975  8.016
29.025  9.242
29.075  8.487
29.125  8.142
29.175  8.053
29.225  8.034
29.275  8.017
29.325  8.012
29.375  8.017
29.425  9.381
29.475  8.374
29.525  8.120
29.575  8.049
29.625  8.031
29.675  8.016
29.725  8.012
29.775  8.175
29.825  9.271
29.875  8.338
29.925  8.112
29.975  8.047
30.025  8.030
30.075  8.016
30.125  8.012
30.175  8.015
30.225  9.284
30.275  8.451
30.325  8.183
30.375  8.227
30.425  7.808
30.475  8.015
30.525  8.013
30.575  8.017
30.625  9.334
30.675  8.413
30.725  8.127
30.775  8.051
30.825  8.032
30.875  8.016
30.925  8.012
30.975  8.191
31.025  9.263
31.075  8.333
31.125  8.110
31.175  8.047
31.225  8.030
31.275  8.016
31.325  8.012
31.375  8.361
31.425  9.142
31.475  8.294
31.525  8.103
31.575  8.045
31.625  8.029
31.675  8.015
31.725  8.012
31.775  8.239
31.825  9.145
31.875  8.387
31.925  8.067
31.975  8.139
32.025  7.998
32.075  8.011
32.125  8.013
32.175  8.309
32.225  9.177
32.275  8.308
32.325  8.106
32.375  8.046
32.425  8.029
32.475  8.015
32.525  8.012
32.575  8.423
32.625  9.096
32.675  8.283
32.725  8.099
32.775  8.044
32.825  8.028
32.875  8.015
32.925  8.012
32.975  8.496
33.025  9.045
33.075  8.269
33.125  8.094
33.175  8.044
33.225  8.027
33.275  8.015
33.325  8.012
33.375  8.379
33.425  9.060
33.475  8.343
33.525  8.083
33.575  8.132
33.625  9.159
33.675  6.828
33.725  8.011
33.775  8.017
33.825  9.327
33.875  8.424
33.925  8.126
33.975  8.050
34.025  8.031
34.075  8.016
34.125  8.012
34.175  8.321
34.225  9.172
34.275  8.303
34.325  8.104
34.375  8.045
34.425  8.029
34.475  8.015
34.525  8.012
34.575  8.475
34.625  9.060
34.675  8.272
34.725  8.095
34.775  8.044
34.825  8.028
34.875  8.015
34.925  8.012
34.975  8.368
35.025  9.496
35.075  8.087
35.125  8.330
35.175  8.618
35.225  8.521
35.275  6.558
35.325  8.012
35.375  8.013
35.425  8.807
35.475  8.831
35.525  8.217
35.575  8.066
35.625  8.040
35.675  8.019
35.725  8.013
35.775  8.016
35.825  9.273
35.875  8.462
35.925  8.137
35.975  8.052
36.025  8.033
36.075  8.017
36.125  8.012
36.175  8.032
36.225  9.376
36.275  8.367
36.325  8.119
36.375  8.049
36.425  8.031
36.475  8.016
36.525  8.012
36.575  8.130
36.625  9.209
36.675  8.419
36.725  8.130
36.775  8.055
36.825  8.029
36.875  8.015
36.925  8.013
36.975  8.192
37.025  9.262
37.075  8.333
37.125  8.110
37.175  8.047
37.225  8.030
37.275  8.016
37.325  8.012
37.375  8.317
37.425  9.169
37.475  8.307
37.525  8.106
37.575  8.046
37.625  8.029
37.675  8.015
37.725  8.012
37.775  8.395
37.825  9.115
37.875  8.288
37.925  8.101
37.975  8.045
38.025  8.029
38.075  8.015
38.125  8.012
38.175  8.377
38.225  9.043
38.275  8.353
38.325  8.118
38.375  8.053
38.425  8.027
38.475  8.015
38.525  8.013
38.575  8.346
38.625  9.157
38.675  8.296
38.725  8.102
38.775  8.045
38.825  8.029
38.875  8.015
38.925  8.012
38.975  8.472
39.025  9.059
39.075  8.274
39.125  8.096
39.175  8.044
39.225  8.028
39.275  8.015
39.325  8.012
39.375  8.508
39.425  9.034
39.475  8.268
39.525  8.093
39.575  8.044
39.625  8.027
39.675  8.015
39.725  8.012
39.775  8.455
39.825  9.093
39.875  8.390
39.925  8.058
39.975  8.513
40.025  8.717
40.075  6.754
40.125  8.012
40.175  8.014
40.225  8.994
40.275  8.685
40.325  8.184
40.375  8.060
40.425  8.037
40.475  8.018
40.525  8.013
40.575  8.017
40.625  9.317
40.675  8.425
40.725  8.131
40.775  8.051
40.825  8.032
40.875  8.016
40.925  8.012
40.975  8.096
41.025  9.328
41.075  8.353
41.125  8.117
41.175  8.048
41.225  8.031
41.275  8.016
41.325  8.012
41.375  8.161
41.425  9.181
41.475  8.421
41.525  8.127
41.575  8.058
41.625  8.287
41.675  9.144
41.725  6.616
41.775  8.013
41.825  9.084
41.875  8.617
41.925  8.166
41.975  8.057
42.025  8.036
42.075  8.017
42.125  8.012
42.175  8.017
42.225  9.346
42.275  8.401
42.325  8.127
42.375  8.051
42.425  8.032
42.475  8.016
42.525  8.012
42.575  8.119
42.625  9.310
42.675  8.350
42.725  8.116
42.775  8.048
42.825  8.031
42.875  8.016
42.925  8.012
42.975  8.209
43.025  9.184
43.075  8.371
43.125  8.123
43.175  8.056
43.225  8.028
43.275  8.031
43.325  7.995
43.375  8.015
43.425  9.269
43.475  8.472
43.525  8.134
43.575  8.052
43.625  8.032
43.675  8.016
43.725  8.012
43.775  8.116
43.825  9.314
43.875  8.349
43.925  8.115
43.975  8.048
44.025  8.031
44.075  8.016
44.125  8.012
44.175  8.232
44.225  9.225
44.275  8.328
44.325  8.111
44.375  8.047
44.425  8.030
44.475  8.016
44.525  8.012
44.575  8.278
44.625  9.162
44.675  8.334
44.725  8.121
44.775  8.049
44.825  8.027
44.875  9.111
44.925  6.915
44.975  8.015
45.025  9.275
45.075  8.464
45.125  8.135
45.175  8.052
45.225  8.033
45.275  8.016
45.325  8.012
45.375  8.106
45.425  9.320
45.475  8.352
45.525  8.116
45.575  8.048
45.625  8.031
45.675  8.016
45.725  8.012
45.775  8.215
45.825  9.236
45.875  8.332
45.925  8.112
45.975  8.047
46.025  8.030
46.075  8.016
46.125  8.012
46.175  8.266
46.225  9.175
46.275  8.332
46.325  8.124
46.375  8.047
46.425  8.029
46.475  8.628
46.525  8.288
46.575  7.117
46.625  9.194
46.675  8.524
46.725  8.155
46.775  8.055
46.825  8.034
46.875  8.017
46.925  8.012
46.975  8.017
47.025  9.384
47.075  8.371
47.125  8.120
47.175  8.049
47.225  8.031
47.275  8.016
47.325  8.012
47.375  8.151
47.425  9.284
47.475  8.344
47.525  8.115
47.575  8.048
47.625  8.031
47.675  8.016
47.725  8.012
47.775  8.167
47.825  9.270
47.875  8.332
47.925  8.160
47.975  8.064
48.025  8.905
48.075  8.643
48.125  8.184
48.175  6.275
48.225  8.301
48.275  9.230
48.325  8.289
48.375  8.091
48.425  8.045
48.475  8.023
48.525  8.014
48.575  8.014
48.625  9.004
48.675  8.669
48.725  8.185
48.775  8.061
48.825  8.038
48.875  8.018
48.925  8.013
48.975  8.015
49.025  9.194
49.075  8.518
49.125  8.152
49.175  8.055
49.225  8.036
49.275  8.017
49.325  8.012
49.375  8.016
49.425  9.274
49.475  8.449
49.525  8.142
49.575  8.057
49.625  8.036
49.675  8.395
49.725  9.227
49.775  6.410
49.825  8.688
49.875  8.915
49.925  8.240
49.975  8.074
50.025  8.042
50.075  8.020
50.125  8.014
50.175  8.015
50.225  9.109
50.275  8.586
50.325  8.167
50.375  8.058
50.425  8.037
50.475  8.018
50.525  8.013
50.575  8.015
50.625  9.212
50.675  8.503
50.725  8.150
50.775  8.055
50.825  8.036
50.875  8.017
50.925  8.012
50.975  8.016
51.025  9.239
51.075  8.477
51.125  8.145
51.175  8.060
51.225  8.033
51.275  8.022
51.325  8.969
51.375  7.048
51.425  8.925
51.475  8.734
51.525  8.199
51.575  8.062
51.625  8.039
51.675  8.018
51.725  8.013
51.775  8.015
51.825  9.181
51.875  8.528
51.925  8.155
51.975  8.056
52.025  8.036
52.075  8.018
52.125  8.013
52.175  8.016
52.225  9.231
52.275  8.488
52.325  8.146
52.375  8.054
52.425  8.035
52.475  8.017
52.525  8.012
52.575  8.016
52.625  9.243
52.675  8.474
52.725  8.144
52.775  8.059
52.825  8.033
52.875  8.021
52.925  8.011
52.975  8.009
53.025  9.197
53.075  8.501
53.125  8.167
53.175  8.057
53.225  8.037
53.275  8.018
53.325  8.013
53.375  8.015
53.425  9.212
53.475  8.502
53.525  8.150
53.575  8.055
53.625  8.036
53.675  8.017
53.725  8.013
53.775  8.015
53.825  9.216
53.875  8.499
53.925  8.150
53.975  8.055
54.025  8.036
54.075  8.017
54.125  8.013
54.175  8.015
54.225  9.221
54.275  8.495
54.325  8.145
54.375  8.059
54.425  8.033
54.475  8.022
54.525  9.188
54.575  8.524
54.625  6.315
54.675  9.500
54.725  8.303
54.775  8.094
54.825  8.045
54.875  8.023
54.925  8.014
54.975  8.014
55.025  8.941
55.075  8.713
55.125  8.197
55.175  8.065
55.225  8.040
55.275  8.019
55.325  8.013
55.375  8.014
55.425  9.071
55.475  8.612
55.525  8.175
55.575  8.059
55.625  8.038
55.675  8.018
55.725  8.013
55.775  8.015
55.825  9.131
55.875  8.563
55.925  8.161
55.975  8.063
56.025  8.035
56.075  8.022
56.125  8.012
56.175  9.143
56.225  7.007
56.275  9.453
56.325  8.241
56.375  8.076
56.425  8.042
56.475  8.020
56.525  8.014
56.575  8.014
56.625  9.045
56.675  8.631
56.725  8.180
56.775  8.061
56.825  8.039
56.875  8.018
56.925  8.013
56.975  8.014
57.025  9.071
57.075  8.609
57.125  8.176
57.175  8.060
57.225  8.038
57.275  8.018
57.325  8.013
57.375  8.015
57.425  9.095
57.475  8.590
57.525  8.171
57.575  8.061
57.625  8.036
57.675  8.021
57.725  8.012
57.775  9.431
57.825  6.814
57.875  9.335
57.925  8.255
57.975  8.082
58.025  8.043
58.075  8.022
58.125  8.014
58.175  8.014
58.225  8.948
58.275  8.704
58.325  8.197
58.375  8.066
58.425  8.040
58.475  8.019
58.525  8.014
58.575  8.014
58.625  9.002
58.675  8.662
58.725  8.187
58.775  8.063
58.825  8.040
58.875  8.019
58.925  8.013
58.975  8.014
59.025  9.034
59.075  8.638
59.125  8.180
59.175  8.065
59.225  8.037
59.275  8.022
59.325  8.013
59.375  9.513
59.425  6.503
59.475  9.521
59.525  8.289
59.575  8.088
59.625  8.044
59.675  8.023
59.725  8.014
59.775  8.013
59.825  8.902
59.875  8.738
59.925  8.205
59.975  8.068
60.025  8.041
60.075  8.020
60.125  8.014
60.175  8.014
60.225  8.974
60.275  8.683
60.325  8.192
60.375  8.065
60.425  8.040
60.475  8.019
60.525  8.013
60.575  8.014
60.625  9.007
60.675  8.657
60.725  8.185
60.775  8.065
60.825  8.037
60.875  8.023
60.925  8.012
60.975  8.010
61.025  9.806
61.075  7.665
61.125  8.342
61.175  8.091
61.225  8.044
61.275  8.024
61.325  8.014
61.375  8.013
61.425  8.795
61.475  8.814
61.525  8.225
61.575  8.075
61.625  8.042
61.675  8.022
61.725  8.014
61.775  8.013
61.825  8.867
61.875  8.762
61.925  8.211
61.975  8.071
62.025  8.041
62.075  8.021
62.125  8.014
62.175  8.013
62.225  8.905
62.275  8.733
62.325  8.205
62.375  8.070
62.425  8.038
62.475  8.024
62.525  8.013
62.575  9.167
62.625  8.633
62.675  7.457
62.725  8.524
62.775  8.121
62.825  8.048
62.875  8.029
62.925  8.015
62.975  8.012
63.025  8.569
63.075  8.990
63.125  8.259
63.175  8.088
63.225  8.044
63.275  8.025
63.325  8.014
63.375  8.013
63.425  8.714
63.475  8.875
63.525  8.238
63.575  8.080
63.625  8.043
63.675  8.023
63.725  8.014
63.775  8.013
63.825  8.760
63.875  8.839
63.925  8.231
63.975  8.078
64.025  8.063
64.075  9.105
64.125  8.500
64.175  8.209
64.225  8.106
64.275  6.118
64.325  9.514
64.375  8.301
64.425  8.087
64.475  8.045
64.525  8.021
64.575  8.014
64.625  8.015
64.675  9.189
64.725  8.529
64.775  8.151
64.825  8.055
64.875  8.035
64.925  8.017
64.975  8.012
65.025  8.017
65.075  9.375
65.125  8.379
65.175  8.121
65.225  8.049
65.275  8.031
65.325  8.016
65.375  8.012
65.425  8.169
65.475  9.276
65.525  8.339
65.575  8.112
65.625  8.049
65.675  8.031
65.725  8.013
65.775  9.468
65.825  8.304
65.875  6.628
65.925  9.251
65.975  8.225
66.025  8.065
66.075  8.038
66.125  8.018
66.175  8.013
66.225  8.017
66.275  9.317
66.325  8.425
66.375  8.131
66.425  8.051
66.475  8.032
66.525  8.016
66.575  8.012
66.625  8.078
66.675  9.338
66.725  8.360
66.775  8.118
66.825  8.049
66.875  8.031
66.925  8.016
66.975  8.012
67.025  8.163
67.075  9.275
67.125  8.342
67.175  8.114
67.225  8.049
67.275  8.031
67.325  8.008
67.375  8.450
67.425  9.301
67.475  8.168
67.525  7.566
67.575  8.357
67.625  8.089
67.675  8.045
67.725  8.021
67.775  8.014
67.825  8.015
67.875  9.114
67.925  8.585
67.975  8.165
68.025  8.057
68.075  8.037
68.125  8.018
68.175  8.013
68.225  8.016
68.275  9.267
68.325  8.462
68.375  8.140
68.425  8.053
68.475  8.034
68.525  8.017
68.575  8.012
68.625  8.017
68.675  9.317
68.725  8.420
68.775  8.132
68.825  8.053
68.875  8.034
68.925  8.017
68.975  8.011
69.025  8.010
69.075  8.760
69.125  8.973
69.175  8.136
69.225  8.055
69.275  8.035
69.325  8.017
69.375  8.012
69.425  8.016
69.475  9.296
69.525  8.438
69.575  8.136
69.625  8.052
69.675  8.034
69.725  8.017
69.775  8.012
69.825  8.017
69.875  9.309
69.925  8.426
69.975  8.134
70.025  8.052
70.075  8.034
70.125  8.017
70.175  8.012
70.225  8.017
70.275  9.309
70.325  8.426
70.375  8.134
70.425  8.053
70.475  8.035
70.525  7.985
70.575  9.432
70.625  8.363
70.675  8.123
70.725  7.254
70.775  8.640
70.825  8.128
70.875  8.050
70.925  8.030
70.975  8.015
71.025  8.013
71.075  8.749
71.125  8.857
71.175  8.233
71.225  8.074
71.275  8.042
71.325  8.021
71.375  8.014
71.425  8.014
71.475  9.028
71.525  8.646
71.575  8.182
71.625  8.061
71.675  8.039
71.725  8.018
71.775  8.013
71.825  8.014
71.875  9.087
71.925  8.598
71.975  8.173
72.025  8.059
72.075  8.037
72.125  8.020
72.175  8.012
72.225  8.010
72.275  8.624
72.325  9.248
72.375  7.976
72.425  8.064
72.475  8.041
72.525  8.020
72.575  8.014
72.625  8.014
72.675  9.025
72.725  8.647
72.775  8.183
72.825  8.061
72.875  8.039
72.925  8.018
72.975  8.013
73.025  8.014
73.075  9.068
73.125  8.613
73.175  8.177
73.225  8.060
73.275  8.039
73.325  8.018
73.375  8.013
73.425  8.014
73.475  9.085
73.525  8.597
73.575  8.174
73.625  8.059
73.675  8.038
73.725  8.020
73.775  8.013
73.825  8.357
73.875  9.472
73.925  8.100
73.975  7.862
74.025  8.108
74.075  8.049
74.125  8.030
74.175  8.016
74.225  8.012
74.275  8.514
74.325  9.038
74.375  8.266
74.425  8.089
74.475  8.044
74.525  8.025
74.575  8.014
74.625  8.013
74.675  8.739
74.725  8.858
74.775  8.234
74.825  8.078
74.875  8.043
74.925  8.023
74.975  8.014
75.025  8.013
75.075  8.828
75.125  8.790
75.175  8.218
75.225  8.073
75.275  8.041
75.325  8.025
75.375  8.013
75.425  8.010
75.475  8.361
75.525  9.547
75.575  7.902
75.625  8.090
75.675  8.044
75.725  8.027
75.775  8.015
75.825  8.012
75.875  8.643
75.925  8.932
75.975  8.249
76.025  8.083
76.075  8.043
76.125  8.024
76.175  8.014
76.225  8.013
76.275  8.745
76.325  8.851
76.375  8.233
76.425  8.078
76.475  8.043
76.525  8.023
76.575  8.014
76.625  8.013
76.675  8.769
76.725  8.833
76.775  8.229
76.825  8.077
76.875  8.042
76.925  8.025
76.975  9.043
77.025  8.581
77.075  8.239
77.125  8.075
77.175  7.587
77.225  8.340
77.275  8.077
77.325  8.042
77.375  8.019
77.425  8.013
77.475  8.016
77.525  9.298
77.575  8.444
77.625  8.132
77.675  8.052
77.725  8.032
77.775  8.016
77.825  8.012
77.875  8.160
77.925  9.287
77.975  8.338
78.025  8.112
78.075  8.047
78.125  8.030
78.175  8.016
78.225  8.012
78.275  8.339
78.325  9.155
78.375  8.300
78.425  8.105
78.475  8.046
78.525  8.030
78.575  8.015
78.625  8.011
78.675  8.013
78.725  9.807
78.775  7.973
78.825  8.101
78.875  8.047
78.925  8.030
78.975  8.016
79.025  8.012
79.075  8.287
79.125  9.190
79.175  8.314
79.225  8.107
79.275  8.046
79.325  8.029
79.375  8.015
79.425  8.012
79.475  8.364
79.525  9.135
79.575  8.295
79.625  8.104
79.675  8.045
79.725  8.029
79.775  8.015
79.825  8.012
79.875  8.373
79.925  9.127
79.975  8.294
80.025  8.104
80.075  8.045
80.125  8.031
80.175  8.015
80.225  9.368
80.275  8.435
80.325  8.130
80.375  8.052
80.425  7.847
80.475  8.086
80.525  8.046
80.575  8.025
80.625  8.015
80.675  8.014
80.725  9.001
80.775  8.672
80.825  8.187
80.875  8.060
80.925  8.038
80.975  8.018
81.025  8.013
81.075  8.016
81.125  9.223
81.175  8.497
81.225  8.146
81.275  8.054
81.325  8.035
81.375  8.017
81.425  8.012
81.475  8.016
81.525  9.291
81.575  8.442
81.625  8.136
81.675  8.052
81.725  8.035
81.775  8.017
81.825  8.022
81.875  9.757
81.925  8.131
81.975  8.075
82.025  7.838
82.075  8.093
82.125  8.046
82.175  8.028
82.225  8.015
82.275  8.013
82.325  8.799
82.375  8.823
82.425  8.222
82.475  8.071
82.525  8.042
82.575  8.020
82.625  8.014
82.675  8.014
82.725  9.073
82.775  8.612
82.825  8.175
82.875  8.059
82.925  8.038
82.975  8.018
83.025  8.013
83.075  8.015
83.125  9.154
83.175  8.546
83.225  8.161
83.275  8.057
83.325  8.038
83.375  8.019
83.425  8.011
83.475  9.586
83.525  8.299
83.575  8.079
83.625  7.824
83.675  8.113
83.725  8.050
83.775  8.030
83.825  8.016
83.875  8.013
83.925  8.633
83.975  8.949
84.025  8.248
84.075  8.080
84.125  8.043
84.175  8.022
84.225  8.014
84.275  8.014
84.325  8.935
84.375  8.713
84.425  8.199
84.475  8.066
84.525  8.040
84.575  8.019
84.625  8.014
84.675  8.014
84.725  9.008
84.775  8.657
84.825  8.187
84.875  8.062
84.925  8.039
84.975  8.021
85.025  8.013
85.075  8.011
85.125  8.504
85.175  8.914
85.225  8.433
85.275  8.063
85.325  8.040
85.375  8.020
85.425  8.014
85.475  8.014
85.525  8.997
85.575  8.665
85.625  8.189
85.675  8.063
85.725  8.040
85.775  8.019
85.825  8.013
85.875  8.014
85.925  9.016
85.975  8.651
86.025  8.185
86.075  8.062
86.125  8.039
86.175  8.019
86.225  8.013
86.275  8.014
86.325  9.028
86.375  8.641
86.425  8.183
86.475  8.062
86.525  8.039
86.575  8.021
86.625  8.013
86.675  8.011
86.725  9.625
86.775  8.155
86.825  8.170
86.875  7.948
86.925  8.040
86.975  8.030
87.025  8.015
87.075  8.012
87.125  8.594
87.175  8.976
87.225  8.255
87.275  8.084
87.325  8.044
87.375  8.023
87.425  8.014
87.475  8.013
87.525  8.804
87.575  8.807
87.625  8.223
87.675  8.075
87.725  8.042
87.775  8.022
87.825  8.014
87.875  8.013
87.925  8.869
87.975  8.760
88.025  8.212
88.075  8.071
88.125  8.041
88.175  8.023
88.225  8.013
88.275  8.012
88.325  9.797
88.375  8.120
88.425  8.056
88.475  7.909
88.525  8.046
88.575  8.035
88.625  8.017
88.675  8.012
88.725  8.175
88.775  9.293
88.825  8.326
88.875  8.107
88.925  8.046
88.975  8.029
89.025  8.015
89.075  8.012
89.125  8.499
89.175  9.043
89.225  8.268
89.275  8.093
89.325  8.044
89.375  8.027
89.425  8.015
89.475  8.012
89.525  8.579
89.575  8.979
89.625  8.258
89.675  8.089
89.725  8.044
89.775  8.026
89.825  8.008
89.875  8.906
89.925  8.883
89.975  8.116
90.025  8.074
90.075  7.861
90.125  8.084
90.175  8.046
90.225  8.024
90.275  8.015
90.325  8.015
90.375  9.119
90.425  8.586
90.475  8.162
90.525  8.057
90.575  8.035
90.625  8.017
90.675  8.012
90.725  8.017
90.775  9.351
90.825  8.397
90.875  8.126
90.925  8.050
90.975  8.032
91.025  8.016
91.075  8.012
91.125  8.133
91.175  9.301
91.225  8.347
91.275  8.115
91.325  8.048
91.375  8.031
91.425  8.017
91.475  8.011
91.525  8.014
91.575  9.789
91.625  8.151
91.675  7.921
91.725  8.054
91.775  8.038
91.825  8.018
91.875  8.013
91.925  8.017
91.975  9.312
92.025  8.430
92.075  8.131
92.125  8.051
92.175  8.032
92.225  8.016
92.275  8.012
92.325  8.062
92.375  9.350
92.425  8.363
92.475  8.118
92.525  8.049
92.575  8.031
92.625  8.016
92.675  8.012
92.725  8.131
92.775  9.297
92.825  8.349
92.875  8.116
92.925  8.048
92.975  8.031
93.025  8.017
93.075  8.011
93.125  8.013
93.175  9.046
93.225  8.553
93.275  8.295
93.325  8.028
93.375  8.032
93.425  8.018
93.475  8.012
93.525  8.017
93.575  9.335
93.625  8.410
93.675  8.128
93.725  8.051
93.775  8.032
93.825  8.016
93.875  8.012
93.925  8.054
93.975  9.352
94.025  8.366
94.075  8.120
94.125  8.049
94.175  8.031
94.225  8.016
94.275  8.012
94.325  8.089
94.375  9.326
94.425  8.359
94.475  8.119
94.525  8.049
94.575  8.031
94.625  8.017
94.675  8.012
94.725  8.013
94.775  9.067
94.825  8.554
94.875  8.212
94.925  8.088
94.975  8.035
95.025  8.016
95.075  8.012
95.125  8.017
95.175  9.350
95.225  8.396
95.275  8.126
95.325  8.050
95.375  8.032
95.425  8.016
95.475  8.012
95.525  8.017
95.575  9.367
95.625  8.381
95.675  8.124
95.725  8.050
95.775  8.032
95.825  8.016
95.875  8.012
95.925  8.017
95.975  9.367
96.025  8.381
96.075  8.124
96.125  8.050
96.175  8.032
96.225  8.016
96.275  8.013
96.325  8.013
96.375  9.075
96.425  8.816
96.475  8.054
96.525  7.970
96.575  8.035
96.625  8.019
96.675  8.013
96.725  8.015
96.775  9.169
96.825  8.539
96.875  8.157
96.925  8.056
96.975  8.036
97.025  8.017
97.075  8.013
97.125  8.016
97.175  9.262
97.225  8.464
97.275  8.141
97.325  8.053
97.375  8.035
97.425  8.017
97.475  8.012
97.525  8.016
97.575  9.282
97.625  8.448
97.675  8.138
97.725  8.053
97.775  8.034
97.825  8.017
97.875  8.013
97.925  8.016
97.975  9.747
98.025  8.175
98.075  8.059
98.125  7.919
98.175  8.037
98.225  8.026
98.275  8.015
98.325  8.013
98.375  8.808
98.425  8.815
98.475  8.220
98.525  8.071
98.575  8.042
98.625  8.020
98.675  8.014
98.725  8.014
98.775  9.018
98.825  8.653
98.875  8.185
98.925  8.061
98.975  8.039
99.025  8.018
99.075  8.013
99.125  8.014
99.175  9.075
99.225  8.607
99.275  8.175
99.325  8.059
99.375  8.038
99.425  8.018
99.475  8.014
99.525  8.012
99.575  8.787
99.625  8.898
99.675  8.241
99.725  8.065
99.775  7.948
99.825  8.025
99.875  8.016
99.925  8.012
99.975  8.564
100.025  9.005
100.075  8.258
100.125  8.083
100.175  8.044
100.225  8.023
100.275  8.014
100.325  8.013
100.375  8.878
100.425  8.755
100.475  8.210
100.525  8.070
100.575  8.041
100.625  8.020
100.675  8.014
100.725  8.014
100.775  8.951
100.825  8.699
100.875  8.197
100.925  8.066
100.975  8.040
101.025  8.020
101.075  8.014
101.125  8.012
101.175  9.683
101.225  8.182
101.275  8.102
101.325  8.042
101.375  7.921
101.425  8.030
101.475  8.018
101.525  8.013
101.575  8.018
101.625  9.406
101.675  8.362
101.725  8.113
101.775  8.047
101.825  8.030
101.875  8.015
101.925  8.012
101.975  8.453
102.025  9.081
102.075  8.274
102.125  8.095
102.175  8.044
102.225  8.027
102.275  8.015
102.325  8.012
102.375  8.599
102.425  8.964
102.475  8.255
102.525  8.087
102.575  8.044
102.625  8.025
102.675  8.015
102.725  9.374
102.775  8.445
102.825  8.120
102.875  8.060
102.925  8.369
102.975  7.557
103.025  8.036
103.075  8.025
103.125  8.015
103.175  8.014
103.225  8.988
103.275  8.687
103.325  8.186
103.375  8.060
103.425  8.038
103.475  8.018
103.525  8.013
103.575  8.016
103.625  9.282
103.675  8.454
103.725  8.136
103.775  8.052
103.825  8.033
103.875  8.017
103.925  8.012
103.975  8.020
104.025  9.381
104.075  8.371
104.125  8.120
104.175  8.049
104.225  8.031
104.275  8.016
104.325  8.012
104.375  8.014
104.425  9.121
104.475  8.451
104.525  8.375
104.575  7.971
104.625  8.034
104.675  8.018
104.725  8.013
104.775  8.016
104.825  9.304
104.875  8.436
104.925  8.132
104.975  8.051
105.025  8.033
105.075  8.016
105.125  8.012
105.175  8.048
105.225  9.360
105.275  8.366
105.325  8.119
105.375  8.049
105.425  8.031
105.475  8.016
105.525  8.012
105.575  8.138
105.625  9.293
105.675  8.348
105.725  8.115
105.775  8.048
105.825  8.031
105.875  8.016
105.925  8.013
105.975  8.014
106.025  9.098
106.075  8.538
106.125  8.266
106.175  8.092
106.225  7.956
106.275  8.017
106.325  8.014
106.375  8.015
106.425  9.163
106.475  8.547
106.525  8.157
106.575  8.056
106.625  8.035
106.675  8.017
106.725  8.012
106.775  8.017
106.825  9.305
106.875  8.432
106.925  8.134
106.975  8.052
107.025  8.033
107.075  8.017
107.125  8.012
107.175  8.017
107.225  9.340
107.275  8.402